#linear chain

    4096 atoms
    4095 bonds


  1 atom types
  1 bond types

0.000 200.000 xlo xhi
0.000 200.000 ylo yhi
0.000 200.000 zlo zhi

Masses

1	10.00

 Atoms

       1 1 1 70.6703 12.2177 23.5588
       2 1 1 70.9749 11.1890 23.8018
       3 1 1 70.2548 10.8672 23.0350
       4 1 1 69.2450 11.1155 22.6764
       5 1 1 68.6084 10.7679 21.8494
       6 1 1 69.0360 11.6412 21.3350
       7 1 1 68.6512 12.3624 20.5989
       8 1 1 68.2002 12.4868 19.6034
       9 1 1 67.3413 11.8046 19.5207
      10 1 1 67.0727 11.9688 20.5747
      11 1 1 67.7282 11.6115 21.3826
      12 1 1 67.5699 10.6895 21.9612
      13 1 1 68.4691 10.9609 22.5337
      14 1 1 68.8990 11.5036 23.3885
      15 1 1 69.5581 11.7999 24.2178
      16 1 1 68.5870 12.1170 24.6258
      17 1 1 67.9292 12.2008 23.7482
      18 1 1 67.1757 11.4203 23.9296
      19 1 1 66.4130 11.1401 24.6711
      20 1 1 66.4297 10.0665 24.4320
      21 1 1 67.3683 9.9782 24.9986
      22 1 1 67.1913 10.8894 24.4083
      23 1 1 66.9534 11.8040 24.9711
      24 1 1 67.9328 11.5884 25.4230
      25 1 1 68.7698 12.2721 25.2179
      26 1 1 68.7325 11.8414 24.2064
      27 1 1 68.7946 10.9706 24.8756
      28 1 1 69.6143 11.3307 25.5147
      29 1 1 69.8695 10.2721 25.3586
      30 1 1 69.8194 9.4073 24.6807
      31 1 1 68.7472 9.2482 24.4935
      32 1 1 67.7602 9.1281 24.9639
      33 1 1 67.2436 10.0734 24.7412
      34 1 1 68.1879 10.0651 24.1771
      35 1 1 67.9842 9.3690 23.3502
      36 1 1 67.0273 9.9114 23.3589
      37 1 1 66.2849 9.4339 24.0154
      38 1 1 65.9242 8.5411 24.5472
      39 1 1 64.9713 8.0102 24.4054
      40 1 1 65.0353 8.4894 25.3934
      41 1 1 64.9866 7.3949 25.4919
      42 1 1 63.9833 6.9935 25.6973
      43 1 1 63.7145 6.7409 26.7336
      44 1 1 62.8031 6.1410 26.8729
      45 1 1 61.7930 6.5314 27.0660
      46 1 1 61.8480 6.7535 25.9901
      47 1 1 61.6509 6.7737 24.9081
      48 1 1 62.7322 6.7503 24.7076
      49 1 1 63.5258 6.0057 24.8683
      50 1 1 64.1892 5.1754 25.1520
      51 1 1 64.4232 4.1006 25.1396
      52 1 1 65.0157 3.4815 24.4500
      53 1 1 64.7397 2.4177 24.4975
      54 1 1 64.5978 1.7678 25.3735
      55 1 1 65.6413 1.6896 25.7126
      56 1 1 65.3156 1.9589 26.7282
      57 1 1 64.4087 1.9476 27.3506
      58 1 1 64.0441 2.9841 27.2996
      59 1 1 63.3687 3.5353 26.6287
      60 1 1 62.4200 2.9978 26.7742
      61 1 1 61.9502 2.4983 27.6343
      62 1 1 60.9284 2.8765 27.4833
      63 1 1 60.0488 2.8755 28.1439
      64 1 1 59.7916 2.7113 27.0871
      65 1 1 59.0138 2.5570 27.8495
      66 1 1 58.2506 1.7780 27.7057
      67 1 1 58.8044 1.6971 26.7586
      68 1 1 59.2849 1.2893 26.8370
      69 1 1 59.1723 1.4292 27.9223
      70 1 1 60.0336 2.0382 28.2344
      71 1 1 59.8029 1.2102 28.9209
      72 1 1 58.9524 1.9075 28.9423
      73 1 1 58.7285 1.3366 28.0290
      74 1 1 59.6470 1.2613 28.1233
      75 1 1 60.1221 2.1825 27.7551
      76 1 1 61.0907 2.6620 27.9599
      77 1 1 61.0844 1.5887 27.7194
      78 1 1 61.4224 1.3561 28.7400
      79 1 1 61.7165 1.6302 28.3517
      80 1 1 62.6183 1.2281 28.8363
      81 1 1 63.5397 1.8166 28.7148
      82 1 1 64.0053 2.6553 28.1764
      83 1 1 64.0976 3.4875 28.8898
      84 1 1 64.1730 4.1873 28.0445
      85 1 1 64.4765 5.2333 27.8901
      86 1 1 64.9084 5.9612 28.5927
      87 1 1 63.9481 6.3604 28.2342
      88 1 1 64.4284 7.2237 27.7504
      89 1 1 65.4913 7.4524 27.5833
      90 1 1 65.2373 8.2836 28.2576
      91 1 1 65.2384 9.2621 27.7552
      92 1 1 64.7357 9.7590 28.5981
      93 1 1 64.1927 10.1526 29.4700
      94 1 1 63.2134 10.6530 29.4465
      95 1 1 62.2719 10.1524 29.7162
      96 1 1 61.5190 9.6732 30.3593
      97 1 1 61.6439 10.5835 30.9641
      98 1 1 60.7988 10.9638 31.5567
      99 1 1 60.3601 10.0995 31.0365
     100 1 1 59.2672 9.9818 30.9960
     101 1 1 58.7878 10.0703 31.9821
     102 1 1 59.5404 10.8368 32.2189
     103 1 1 58.7616 11.3367 31.6244
     104 1 1 59.5542 11.5285 30.8861
     105 1 1 59.2933 10.7481 30.1561
     106 1 1 59.9509 11.5792 29.8614
     107 1 1 59.4506 12.1184 30.6793
     108 1 1 60.5322 12.3071 30.7471
     109 1 1 61.1549 13.0620 31.2495
     110 1 1 62.0348 13.6851 31.4672
     111 1 1 62.4992 12.6880 31.4813
     112 1 1 63.0748 11.7573 31.5925
     113 1 1 63.3302 11.9391 30.5381
     114 1 1 62.3468 11.5791 30.2014
     115 1 1 63.1321 11.1865 29.5387
     116 1 1 63.4673 10.2204 29.1334
     117 1 1 63.9832 9.3007 29.4465
     118 1 1 62.9061 9.0805 29.4115
     119 1 1 61.8864 8.6732 29.3453
     120 1 1 61.9218 9.7676 29.4494
     121 1 1 61.8446 10.6965 28.8652
     122 1 1 60.7832 10.9096 29.0600
     123 1 1 60.3618 10.4288 29.9552
     124 1 1 59.8365 11.3940 30.0034
     125 1 1 59.7416 12.4344 30.3479
     126 1 1 59.3747 13.4484 30.5651
     127 1 1 58.8958 13.6280 29.5913
     128 1 1 59.1536 14.4186 28.8712
     129 1 1 59.8425 15.2713 28.7796
     130 1 1 60.1212 15.6684 27.7924
     131 1 1 59.0530 15.8825 27.6400
     132 1 1 58.9134 15.3701 28.6033
     133 1 1 58.7311 15.6827 29.6420
     134 1 1 59.5205 16.2431 30.1643
     135 1 1 60.1903 16.6349 29.3846
     136 1 1 61.0056 16.1615 28.8179
     137 1 1 60.1726 15.9644 28.1270
     138 1 1 59.2050 16.3437 28.4872
     139 1 1 59.5924 16.9418 27.6493
     140 1 1 60.6058 17.3088 27.4292
     141 1 1 60.0681 17.8288 26.6227
     142 1 1 60.8417 18.4322 26.1253
     143 1 1 60.4779 19.4682 26.0601
     144 1 1 59.4117 19.2249 26.1791
     145 1 1 58.3166 19.3262 26.1568
     146 1 1 58.0048 18.3630 25.7265
     147 1 1 58.0291 17.9533 24.7060
     148 1 1 58.5066 17.9886 23.7156
     149 1 1 58.9217 17.0282 24.0550
     150 1 1 59.1036 16.7445 23.0079
     151 1 1 60.0682 16.2523 23.2012
     152 1 1 60.3608 15.5372 22.4183
     153 1 1 60.4274 14.7478 23.1815
     154 1 1 61.3915 15.1359 23.5421
     155 1 1 60.6731 15.2650 24.3651
     156 1 1 60.1351 15.9449 23.6882
     157 1 1 59.7035 16.6117 24.4492
     158 1 1 60.6387 16.0999 24.7202
     159 1 1 61.4734 16.6971 24.3245
     160 1 1 61.8352 16.6488 25.3621
     161 1 1 60.9399 16.2851 25.8876
     162 1 1 60.8068 16.8785 24.9709
     163 1 1 60.5507 17.7229 24.3142
     164 1 1 60.4228 17.0038 23.4918
     165 1 1 61.4656 16.9888 23.8415
     166 1 1 60.9793 16.1049 24.2799
     167 1 1 60.6451 16.3377 23.2581
     168 1 1 61.4790 17.0462 23.1455
     169 1 1 62.3130 17.7417 23.3210
     170 1 1 62.6916 16.9415 22.6681
     171 1 1 63.2602 16.0063 22.5581
     172 1 1 63.3798 14.9252 22.3937
     173 1 1 63.0103 14.6267 21.4016
     174 1 1 63.9368 14.1576 21.7641
     175 1 1 64.4070 15.1050 22.0662
     176 1 1 65.1243 15.7089 22.6412
     177 1 1 64.3510 15.7209 23.4234
     178 1 1 64.0045 15.5703 22.3903
     179 1 1 63.5657 14.6899 22.8825
     180 1 1 62.7668 14.0786 23.3277
     181 1 1 62.4287 14.1509 24.3719
     182 1 1 61.3308 14.0984 24.4147
     183 1 1 61.2469 13.1891 25.0279
     184 1 1 61.9642 12.4673 24.6101
     185 1 1 62.1521 11.9364 23.6652
     186 1 1 61.8954 10.9064 23.9538
     187 1 1 61.8575 10.0542 24.6482
     188 1 1 61.9010 8.9916 24.9294
     189 1 1 62.6310 8.1934 24.7297
     190 1 1 62.0408 7.5356 25.3847
     191 1 1 60.9949 7.4582 25.0530
     192 1 1 61.0574 8.5158 24.7570
     193 1 1 60.2417 9.2538 24.7522
     194 1 1 60.3375 9.7842 25.7111
     195 1 1 59.9714 10.6189 26.3270
     196 1 1 60.4997 9.8981 26.9683
     197 1 1 60.3307 9.2624 26.0866
     198 1 1 60.7414 8.3460 25.6379
     199 1 1 60.9689 8.0482 26.6721
     200 1 1 60.7769 8.7950 27.4566
     201 1 1 60.8102 9.8175 27.0524
     202 1 1 61.1024 9.3821 26.0854
     203 1 1 60.7337 8.4644 26.5670
     204 1 1 61.5364 7.9546 26.0140
     205 1 1 61.4423 9.0403 25.8645
     206 1 1 62.3513 9.2764 26.4372
     207 1 1 62.3983 9.8935 27.3466
     208 1 1 61.4165 9.6614 26.9082
     209 1 1 60.4204 9.2146 26.7737
     210 1 1 59.5384 9.5000 26.1816
     211 1 1 59.3378 8.8517 25.3158
     212 1 1 59.5237 8.0819 24.5524
     213 1 1 59.3280 7.5878 23.5893
     214 1 1 59.9356 7.0307 24.3177
     215 1 1 60.6785 7.8393 24.3824
     216 1 1 61.7274 7.8586 24.7131
     217 1 1 61.4854 8.6684 24.0090
     218 1 1 60.5818 8.5228 23.3988
     219 1 1 59.5848 8.6086 23.8556
     220 1 1 58.8686 9.2075 24.4372
     221 1 1 57.8271 8.8588 24.3768
     222 1 1 57.4894 9.2096 23.3905
     223 1 1 57.9593 9.7451 22.5524
     224 1 1 57.4202 8.8542 22.1980
     225 1 1 58.0150 8.6898 23.1087
     226 1 1 56.9636 8.9689 23.2723
     227 1 1 57.1945 9.2454 24.3116
     228 1 1 58.1298 9.3539 24.8804
     229 1 1 58.8087 8.6236 24.4160
     230 1 1 58.7761 7.7201 25.0426
     231 1 1 58.7012 7.3501 24.0093
     232 1 1 59.2500 7.7743 23.1557
     233 1 1 60.2115 7.9334 22.6455
     234 1 1 60.2980 8.8953 22.1191
     235 1 1 59.2314 8.6587 21.9911
     236 1 1 58.6021 8.6503 21.0890
     237 1 1 57.7680 8.8526 21.7771
     238 1 1 57.1102 7.9935 21.5790
     239 1 1 56.4512 8.7990 21.2227
     240 1 1 55.5142 8.6527 21.7800
     241 1 1 55.8806 9.6244 22.1429
     242 1 1 55.0058 10.2913 22.1431
     243 1 1 54.5237 9.3028 22.1237
     244 1 1 54.4982 9.0197 23.1863
     245 1 1 53.7500 8.3451 23.6280
     246 1 1 52.8722 7.9308 24.1456
     247 1 1 52.4880 8.5865 23.3503
     248 1 1 51.9240 8.5808 24.2947
     249 1 1 51.5694 8.6359 25.3345
     250 1 1 51.5434 8.6418 26.4342
     251 1 1 50.9494 9.5639 26.5163
     252 1 1 50.6123 10.6103 26.4796
     253 1 1 51.2321 11.4552 26.8142
     254 1 1 50.6227 12.3574 26.6573
     255 1 1 51.4569 13.0706 26.7298
     256 1 1 51.8423 12.3522 27.4683
     257 1 1 51.8180 11.3566 27.0011
     258 1 1 51.7485 11.0424 28.0530
     259 1 1 52.2272 10.0623 28.1958
     260 1 1 52.7592 10.7371 28.8825
     261 1 1 53.1951 10.2760 29.7811
     262 1 1 53.4434 9.2419 29.4999
     263 1 1 54.1209 8.9129 28.6983
     264 1 1 54.2887 9.2331 27.6594
     265 1 1 54.7720 8.3154 27.2931
     266 1 1 54.0803 7.4783 27.4685
     267 1 1 54.4393 7.0725 26.5112
     268 1 1 55.4354 7.2894 26.0981
     269 1 1 55.2341 6.8225 25.1226
     270 1 1 54.4613 6.1084 24.8022
     271 1 1 53.9481 6.7493 24.0701
     272 1 1 54.7449 7.1609 23.4331
     273 1 1 53.8995 7.8403 23.6169
     274 1 1 53.1654 8.2748 24.3114
     275 1 1 52.2161 8.6785 24.6933
     276 1 1 51.7550 9.2526 23.8761
     277 1 1 51.2903 10.0150 24.5186
     278 1 1 50.4427 10.6765 24.7512
     279 1 1 49.4720 10.8765 25.2284
     280 1 1 49.0794 10.6509 24.2260
     281 1 1 49.7497 9.9383 23.7231
     282 1 1 50.5327 10.7094 23.6763
     283 1 1 50.9564 11.2230 24.5520
     284 1 1 49.9722 10.8184 24.8306
     285 1 1 49.7560 10.0875 24.0373
     286 1 1 49.4958 9.9583 22.9764
     287 1 1 48.5503 9.6451 22.5097
     288 1 1 47.9690 8.7112 22.5014
     289 1 1 47.3597 8.1208 21.8013
     290 1 1 48.2460 7.5990 21.4113
     291 1 1 49.3374 7.5282 21.5285
     292 1 1 50.1679 7.0803 20.9631
     293 1 1 49.3091 6.8310 20.3226
     294 1 1 48.7004 5.9646 20.0248
     295 1 1 49.3512 5.7448 20.8839
     296 1 1 50.3731 5.9805 21.2159
     297 1 1 50.0267 5.3910 22.0776
     298 1 1 50.0192 4.7095 22.9410
     299 1 1 50.5419 4.0702 22.2143
     300 1 1 51.1826 4.7870 21.6797
     301 1 1 51.6931 4.8101 22.6538
     302 1 1 52.3247 3.9130 22.7337
     303 1 1 52.7430 3.8775 21.7170
     304 1 1 53.2322 2.9428 21.4055
     305 1 1 53.2736 2.3666 20.4695
     306 1 1 52.6185 1.8408 19.7593
     307 1 1 52.2740 1.3238 20.6670
     308 1 1 51.7922 1.5734 20.2510
     309 1 1 51.7011 1.3521 19.6636
     310 1 1 52.3295 1.5622 20.5416
     311 1 1 51.9768 2.5932 20.6917
     312 1 1 51.0072 2.1079 20.5065
     313 1 1 50.1360 1.9699 21.1638
     314 1 1 49.1329 2.0228 20.7156
     315 1 1 49.2820 1.3041 19.8963
     316 1 1 49.0938 1.4834 19.1517
     317 1 1 48.9970 1.1851 18.2835
     318 1 1 48.8730 1.6337 17.2868
     319 1 1 48.5788 1.4036 16.2522
     320 1 1 49.1617 1.9175 15.4736
     321 1 1 49.9409 2.1952 16.1986
     322 1 1 49.4491 1.9133 17.1413
     323 1 1 48.7175 1.2699 16.6306
     324 1 1 48.1056 1.0286 15.7666
     325 1 1 48.5094 2.0517 15.7808
     326 1 1 47.9189 2.8761 15.3546
     327 1 1 47.6376 1.8676 15.0174
     328 1 1 47.4221 2.7396 14.3824
     329 1 1 47.4862 3.5738 13.6683
     330 1 1 47.8916 3.8457 12.6826
     331 1 1 48.2632 3.5906 11.6792
     332 1 1 49.1093 4.2890 11.7590
     333 1 1 49.7272 3.7950 12.5233
     334 1 1 48.9803 3.1108 12.9521
     335 1 1 48.1969 3.7620 13.3672
     336 1 1 47.7805 4.5569 14.0033
     337 1 1 48.0043 4.8040 12.9550
     338 1 1 47.6232 5.8311 12.8551
     339 1 1 46.7732 5.5551 12.2138
     340 1 1 46.4431 4.9521 13.0725
     341 1 1 47.3670 5.0913 13.6531
     342 1 1 47.4960 4.0989 13.1964
     343 1 1 47.3988 3.8374 14.2605
     344 1 1 47.5693 2.7618 14.4151
     345 1 1 48.5178 2.5310 14.9221
     346 1 1 48.3996 3.1163 15.8459
     347 1 1 49.1863 3.4200 16.5522
     348 1 1 48.3911 3.6750 17.2681
     349 1 1 48.1854 2.6089 17.4443
     350 1 1 48.5580 2.2396 16.4774
     351 1 1 47.5434 2.4210 16.0933
     352 1 1 46.8538 2.5560 16.9396
     353 1 1 46.2923 2.9960 17.7769
     354 1 1 46.5980 4.0453 17.6521
     355 1 1 47.4758 3.7029 17.0845
     356 1 1 46.9337 3.8755 16.1431
     357 1 1 47.0695 2.8177 16.4125
     358 1 1 46.6536 2.7346 17.4275
     359 1 1 46.3558 2.3988 18.4317
     360 1 1 45.9580 1.4710 17.9946
     361 1 1 45.2421 1.2028 17.5013
     362 1 1 45.8186 1.5725 16.6405
     363 1 1 46.8472 1.3580 16.3151
     364 1 1 46.5008 1.8080 15.3730
     365 1 1 47.4114 1.6490 14.7767
     366 1 1 48.4106 1.8786 15.1753
     367 1 1 49.4984 1.9682 15.3115
     368 1 1 49.4605 1.0827 15.6344
     369 1 1 50.2454 1.4567 14.9607
     370 1 1 50.9084 1.6356 14.1013
     371 1 1 51.7259 1.0916 14.2156
     372 1 1 51.9295 2.0949 13.8133
     373 1 1 51.5366 2.0105 14.8373
     374 1 1 51.2232 1.2585 14.0981
     375 1 1 52.1941 1.1142 14.5945
     376 1 1 52.5652 1.6863 15.4577
     377 1 1 53.3095 2.0728 14.7459
     378 1 1 54.3492 1.9213 14.4201
     379 1 1 55.0853 1.5017 15.1215
     380 1 1 54.7953 1.3938 16.1771
     381 1 1 55.8699 1.6053 16.2800
     382 1 1 56.2149 1.4141 15.2532
     383 1 1 56.4221 1.1171 14.3125
     384 1 1 56.5604 2.2039 14.4111
     385 1 1 57.3658 2.3590 15.1441
     386 1 1 57.3461 3.1196 15.9385
     387 1 1 57.5362 4.0990 15.4753
     388 1 1 57.7790 4.6414 16.4009
     389 1 1 58.3866 4.5974 17.3169
     390 1 1 57.3570 4.2211 17.4078
     391 1 1 56.5301 4.1449 16.6863
     392 1 1 57.4227 3.5212 16.5308
     393 1 1 58.3738 4.0629 16.4220
     394 1 1 58.4076 3.1107 15.8722
     395 1 1 57.5605 3.4208 15.2427
     396 1 1 56.4854 3.3609 15.0174
     397 1 1 56.6165 2.5124 15.7051
     398 1 1 55.6177 2.9638 15.7980
     399 1 1 54.6937 2.9335 16.3941
     400 1 1 54.7154 3.9990 16.1218
     401 1 1 54.1890 4.2570 15.1910
     402 1 1 53.0947 4.1921 15.1001
     403 1 1 52.4029 4.4080 14.2726
     404 1 1 52.6631 5.2563 14.9228
     405 1 1 52.5365 4.3185 15.4837
     406 1 1 52.9426 3.8148 16.3732
     407 1 1 53.4683 4.3911 17.1489
     408 1 1 53.7922 3.6952 17.9368
     409 1 1 54.0930 3.4307 18.9612
     410 1 1 53.1261 3.1948 19.4297
     411 1 1 52.2414 3.8473 19.4684
     412 1 1 51.5312 4.6821 19.3745
     413 1 1 51.9208 5.6492 19.7249
     414 1 1 51.2701 6.3338 19.1611
     415 1 1 50.4335 6.7878 19.7124
     416 1 1 49.7406 7.4764 19.2068
     417 1 1 50.0213 8.5376 19.1351
     418 1 1 49.8172 8.3474 20.1992
     419 1 1 48.8887 7.7892 20.3896
     420 1 1 49.1772 8.4878 21.1887
     421 1 1 50.1536 8.7080 21.6451
     422 1 1 50.3237 9.0275 20.6064
     423 1 1 49.6252 9.7103 20.1005
     424 1 1 49.2117 10.1849 19.1984
     425 1 1 49.4519 9.1549 18.8959
     426 1 1 49.7470 9.2562 19.9507
     427 1 1 48.6786 8.9963 19.9201
     428 1 1 49.3010 8.5744 19.1172
     429 1 1 49.4251 9.6659 19.0602
     430 1 1 50.3404 9.0693 19.1875
     431 1 1 49.5216 8.3415 19.0874
     432 1 1 48.5743 7.9271 19.4627
     433 1 1 47.4879 7.9742 19.2968
     434 1 1 47.0742 8.3657 20.2379
     435 1 1 46.0611 8.1643 19.8595
     436 1 1 46.8380 7.7143 19.2239
     437 1 1 46.0525 6.9511 19.3257
     438 1 1 45.1555 7.5537 19.5309
     439 1 1 44.5493 8.4558 19.3609
     440 1 1 43.8765 8.9490 18.6440
     441 1 1 44.5302 9.5090 17.9591
     442 1 1 44.5062 8.5088 17.5020
     443 1 1 44.3245 7.4396 17.6858
     444 1 1 45.2910 7.6443 18.1694
     445 1 1 45.2420 8.4294 17.4005
     446 1 1 46.1461 8.1702 16.8301
     447 1 1 46.4187 7.4964 16.0044
     448 1 1 47.4713 7.3379 16.2817
     449 1 1 47.2025 6.5565 17.0078
     450 1 1 46.9521 7.4766 17.5561
     451 1 1 47.1994 8.5074 17.8497
     452 1 1 46.6547 9.4255 18.1152
     453 1 1 45.9731 9.1989 17.2821
     454 1 1 46.4233 9.2454 16.2796
     455 1 1 46.6802 10.2752 16.5683
     456 1 1 46.6832 11.3191 16.2212
     457 1 1 45.5931 11.1718 16.2279
     458 1 1 44.8389 11.8954 15.8850
     459 1 1 45.5813 12.2963 15.1793
     460 1 1 45.8951 12.3945 14.1296
     461 1 1 45.3695 11.6664 13.4944
     462 1 1 44.9103 11.6471 14.4938
     463 1 1 44.5991 10.8823 13.7670
     464 1 1 44.6455 9.7840 13.7271
     465 1 1 44.7392 8.9196 14.4009
     466 1 1 44.0872 9.7568 14.6903
     467 1 1 44.1040 8.9210 15.4053
     468 1 1 44.8010 8.8873 16.2556
     469 1 1 44.9711 8.3074 17.1747
     470 1 1 45.5768 8.6795 18.0141
     471 1 1 44.8546 8.6460 18.8431
     472 1 1 44.2859 9.1023 18.0195
     473 1 1 43.5512 9.4438 18.7636
     474 1 1 43.1563 8.4191 18.6996
     475 1 1 43.1476 8.7052 19.7617
     476 1 1 43.9688 8.8814 20.4720
     477 1 1 44.8856 9.1821 19.9437
     478 1 1 44.5125 10.2155 19.9965
     479 1 1 44.4009 11.2864 19.7713
     480 1 1 44.8940 11.2897 20.7546
     481 1 1 45.7568 11.5612 21.3806
     482 1 1 46.4253 12.3900 21.1045
     483 1 1 46.9292 11.6216 21.7092
     484 1 1 46.4437 11.0468 22.5116
     485 1 1 46.2895 12.1321 22.6027
     486 1 1 46.3527 12.6846 21.6536
     487 1 1 45.4791 13.3480 21.5715
     488 1 1 44.4334 13.3347 21.2305
     489 1 1 44.0309 14.3006 20.8915
     490 1 1 43.5055 14.6507 21.7922
     491 1 1 42.4458 14.6691 21.4977
     492 1 1 42.5280 14.3066 20.4624
     493 1 1 42.2308 14.1536 19.4145
     494 1 1 42.9467 13.4008 19.7760
     495 1 1 43.9669 13.0282 19.6017
     496 1 1 44.9078 13.2960 20.1048
     497 1 1 45.5757 14.1673 20.1737
     498 1 1 45.9174 15.1147 19.7315
     499 1 1 45.5787 15.3529 18.7124
     500 1 1 44.5051 15.5885 18.7565
     501 1 1 44.5172 14.4941 18.6460
     502 1 1 45.2482 14.7066 19.4401
     503 1 1 44.9554 14.8801 20.4861
     504 1 1 44.5549 14.5275 21.4480
     505 1 1 45.3161 15.0715 22.0265
     506 1 1 45.1595 16.1554 21.9231
     507 1 1 44.0965 15.8854 21.8378
     508 1 1 44.4149 16.2859 22.8116
     509 1 1 43.3324 16.2167 22.6285
     510 1 1 43.7530 15.2083 22.7558
     511 1 1 43.4105 15.4855 21.7479
     512 1 1 44.3559 14.9410 21.6075
     513 1 1 44.7605 13.9714 21.9334
     514 1 1 45.3374 13.8092 21.0110
     515 1 1 44.7612 13.3614 20.1879
     516 1 1 44.7845 14.4611 20.1892
     517 1 1 44.4214 15.1074 19.3765
     518 1 1 44.3534 14.2730 18.6629
     519 1 1 43.9620 13.2450 18.6732
     520 1 1 44.6244 12.9111 17.8609
     521 1 1 44.1765 11.9764 18.2294
     522 1 1 43.1117 12.0427 18.4974
     523 1 1 43.5772 12.5627 19.3477
     524 1 1 43.1226 12.1665 20.2677
     525 1 1 42.6871 12.5374 21.2073
     526 1 1 43.4298 13.3485 21.1838
     527 1 1 43.7014 14.3611 20.8509
     528 1 1 43.2317 15.1072 20.1932
     529 1 1 42.7226 14.9545 19.2301
     530 1 1 43.5642 15.0356 18.5265
     531 1 1 42.7721 15.6484 18.0714
     532 1 1 41.9565 16.2987 17.7223
     533 1 1 41.6884 17.3394 17.9571
     534 1 1 42.3265 16.8652 18.7174
     535 1 1 41.5560 17.2657 19.3925
     536 1 1 40.5909 17.2124 19.9177
     537 1 1 39.4969 17.1540 19.8185
     538 1 1 39.8809 16.6316 20.7071
     539 1 1 40.6883 17.3722 20.6084
     540 1 1 39.9167 17.3342 19.8254
     541 1 1 39.8047 17.8457 18.8580
     542 1 1 38.9874 18.0939 18.1649
     543 1 1 39.9853 18.2569 17.7318
     544 1 1 40.5949 18.9821 17.1728
     545 1 1 41.5291 18.4456 16.9504
     546 1 1 41.2829 17.7833 16.1074
     547 1 1 42.3606 17.9109 16.2871
     548 1 1 42.9239 17.8501 15.3443
     549 1 1 43.9703 18.1281 15.5382
     550 1 1 43.9629 19.0134 16.1911
     551 1 1 44.1167 19.9259 16.7858
     552 1 1 44.5916 20.8461 16.4148
     553 1 1 43.7225 21.0108 15.7609
     554 1 1 43.1961 20.9736 14.7958
     555 1 1 43.2114 22.0729 14.7586
     556 1 1 44.1637 21.5312 14.8567
     557 1 1 45.2587 21.6359 14.8500
     558 1 1 45.6339 21.5484 15.8804
     559 1 1 45.9453 22.5866 16.0678
     560 1 1 46.2177 23.2417 16.9085
     561 1 1 45.1741 22.9692 17.1247
     562 1 1 44.1613 22.5577 17.2468
     563 1 1 44.8803 22.1935 17.9955
     564 1 1 44.8217 22.4834 19.0550
     565 1 1 45.4970 23.3362 19.2182
     566 1 1 45.6859 23.1255 18.1552
     567 1 1 46.2384 22.2305 18.4772
     568 1 1 45.6100 22.2376 19.3800
     569 1 1 44.8033 21.6513 18.9156
     570 1 1 44.4946 22.5247 18.3223
     571 1 1 43.5917 22.9697 17.8788
     572 1 1 42.7684 22.3052 17.5778
     573 1 1 42.3590 21.6878 16.7646
     574 1 1 41.7725 22.6078 16.6249
     575 1 1 41.4746 22.9332 15.6173
     576 1 1 41.3704 22.5384 14.5959
     577 1 1 41.9812 23.0513 13.8384
     578 1 1 42.7190 22.5925 14.5130
     579 1 1 42.1338 22.7837 15.4246
     580 1 1 43.0841 22.2918 15.6796
     581 1 1 43.9478 21.7244 16.0564
     582 1 1 44.5906 21.1776 15.3509
     583 1 1 44.7333 22.2597 15.4874
     584 1 1 45.3175 21.6864 16.2221
     585 1 1 45.1429 21.0785 17.1221
     586 1 1 44.9143 20.0854 16.7081
     587 1 1 45.7681 19.8839 17.3718
     588 1 1 46.5949 20.1847 16.7116
     589 1 1 46.7098 19.5358 15.8308
     590 1 1 47.5247 19.2000 16.4890
     591 1 1 47.7410 19.4286 17.5430
     592 1 1 48.0479 18.8008 18.3924
     593 1 1 48.6868 19.4268 19.0327
     594 1 1 49.5147 18.8621 19.4862
     595 1 1 49.4744 17.8345 19.0957
     596 1 1 50.5248 18.0650 19.3272
     597 1 1 51.4750 18.5944 19.1638
     598 1 1 51.4020 19.6719 18.9546
     599 1 1 50.5437 20.2214 18.5406
     600 1 1 49.5203 20.2017 18.1378
     601 1 1 49.9975 19.5795 17.3663
     602 1 1 50.9880 19.7980 17.7919
     603 1 1 51.4943 19.0749 18.4483
     604 1 1 50.8849 18.1597 18.4815
     605 1 1 51.3478 17.1983 18.7485
     606 1 1 50.8988 16.6718 19.6036
     607 1 1 50.4662 15.7050 19.9004
     608 1 1 49.5353 15.8643 19.3364
     609 1 1 49.4614 15.0843 18.5643
     610 1 1 50.1225 15.8958 18.2260
     611 1 1 49.1041 15.8599 17.8119
     612 1 1 49.4548 16.8576 17.5093
     613 1 1 49.8371 17.3620 16.6096
     614 1 1 49.5006 18.1047 15.8712
     615 1 1 49.2946 18.6079 14.9150
     616 1 1 49.9984 18.1038 14.2364
     617 1 1 49.8605 17.0936 13.8235
     618 1 1 49.1639 16.4272 13.2937
     619 1 1 48.6800 17.2823 13.7881
     620 1 1 48.8650 18.2210 14.3309
     621 1 1 49.9348 18.3037 14.0883
     622 1 1 50.6855 17.9371 14.8038
     623 1 1 50.9727 17.5769 13.8049
     624 1 1 51.9891 17.8584 14.1175
     625 1 1 52.3717 18.8495 14.4026
     626 1 1 53.3286 19.3296 14.6554
     627 1 1 53.2568 20.3408 14.2286
     628 1 1 54.3132 20.6444 14.1845
     629 1 1 54.7688 21.3439 13.4681
     630 1 1 55.3966 20.4477 13.3553
     631 1 1 56.1910 20.5025 12.5964
     632 1 1 55.7220 20.2737 11.6280
     633 1 1 55.2303 19.7692 12.4729
     634 1 1 54.1670 19.5692 12.2745
     635 1 1 53.8145 20.1488 11.4086
     636 1 1 54.4548 21.0229 11.2190
     637 1 1 55.0654 20.8159 12.1102
     638 1 1 55.1556 20.1740 12.9990
     639 1 1 55.1425 21.2269 13.3171
     640 1 1 54.5592 21.5515 12.4428
     641 1 1 53.8370 21.4003 13.2587
     642 1 1 53.1866 22.2867 13.2949
     643 1 1 54.0950 22.6905 13.7658
     644 1 1 55.0091 22.4590 13.1995
     645 1 1 54.7532 23.4021 12.6944
     646 1 1 54.6570 23.9449 13.6463
     647 1 1 54.6456 23.0035 14.2152
     648 1 1 55.2669 22.1928 13.8067
     649 1 1 55.1905 21.1050 13.6623
     650 1 1 56.1710 20.9377 13.1926
     651 1 1 56.7880 21.7374 13.6283
     652 1 1 56.6283 22.3330 12.7174
     653 1 1 57.2832 23.2167 12.7309
     654 1 1 57.9181 23.8298 12.0745
     655 1 1 58.1929 23.7752 11.0108
     656 1 1 58.3983 24.8554 11.0422
     657 1 1 57.5078 25.4023 11.3854
     658 1 1 58.0432 24.8432 12.1669
     659 1 1 58.6167 25.7452 12.4267
     660 1 1 58.0841 26.1689 13.2908
     661 1 1 58.8022 26.3675 14.1001
     662 1 1 59.4822 25.5354 13.8648
     663 1 1 59.3703 26.2524 13.0381
     664 1 1 60.3977 26.0280 13.3608
     665 1 1 60.4948 26.9665 12.7952
     666 1 1 60.0878 27.1167 11.7844
     667 1 1 59.8832 28.0185 11.1887
     668 1 1 59.1955 28.2772 10.3701
     669 1 1 59.9214 27.7365 9.7450
     670 1 1 59.9578 27.4873 8.6743
     671 1 1 60.9281 27.6571 8.1848
     672 1 1 61.1662 28.0604 7.1895
     673 1 1 62.1637 27.5979 7.2227
     674 1 1 62.1140 27.3888 6.1439
     675 1 1 63.0884 27.8749 5.9884
     676 1 1 62.5311 28.8174 5.8823
     677 1 1 63.4045 29.4284 6.1539
     678 1 1 63.6893 28.4278 6.5114
     679 1 1 63.3922 28.0656 5.5162
     680 1 1 63.1686 28.8779 4.8089
     681 1 1 64.0131 29.0512 5.4921
     682 1 1 64.4692 28.6387 4.5800
     683 1 1 65.3963 28.1711 4.9433
     684 1 1 65.2449 28.2392 3.8559
     685 1 1 65.8278 28.8893 3.1868
     686 1 1 65.4232 29.8159 2.7535
     687 1 1 64.6406 29.2476 2.2294
     688 1 1 64.1581 28.2798 2.4309
     689 1 1 63.7335 28.6054 1.4698
     690 1 1 64.6318 29.1737 1.1868
     691 1 1 65.2989 28.4678 1.7031
     692 1 1 64.3524 28.6082 2.2458
     693 1 1 64.7799 29.1141 3.1241
     694 1 1 64.7900 28.0198 3.2356
     695 1 1 63.8392 27.4722 3.3146
     696 1 1 63.4863 26.6009 3.8858
     697 1 1 64.1487 27.3325 4.3716
     698 1 1 64.4872 28.3426 4.0973
     699 1 1 64.3736 29.3362 4.5554
     700 1 1 64.9931 29.5299 5.4435
     701 1 1 65.9319 30.0003 5.7710
     702 1 1 65.1884 30.5983 5.2237
     703 1 1 64.2315 30.2840 5.6658
     704 1 1 63.6656 30.1746 6.6028
     705 1 1 63.9906 31.1701 6.9394
     706 1 1 65.0760 31.3480 6.9208
     707 1 1 65.1910 32.0707 6.0995
     708 1 1 66.0044 31.6690 5.4776
     709 1 1 66.3177 32.6329 5.9050
     710 1 1 65.3266 33.1101 5.8936
     711 1 1 65.8592 34.0455 5.6672
     712 1 1 65.0821 34.0785 6.4450
     713 1 1 64.3980 34.8388 6.0401
     714 1 1 63.7988 34.2371 6.7393
     715 1 1 63.9539 35.0930 7.4127
     716 1 1 64.8203 35.7255 7.1692
     717 1 1 65.4922 35.1995 6.4751
     718 1 1 65.3060 34.9019 5.4326
     719 1 1 65.2523 35.9031 4.9801
     720 1 1 65.2277 36.9833 5.1860
     721 1 1 66.2895 37.2273 5.0339
     722 1 1 67.2742 36.8031 4.7885
     723 1 1 67.2429 37.2263 5.8034
     724 1 1 68.0089 36.6640 6.3576
     725 1 1 68.0435 35.7347 5.7701
     726 1 1 67.3347 35.0203 6.2140
     727 1 1 67.2143 34.6843 7.2545
     728 1 1 66.6786 34.1286 6.4708
     729 1 1 66.3440 34.4055 5.4602
     730 1 1 65.6900 33.5924 5.1121
     731 1 1 65.0349 33.3810 4.2541
     732 1 1 65.4628 32.4241 3.9205
     733 1 1 66.0511 33.0156 4.6375
     734 1 1 66.5724 32.4224 3.8718
     735 1 1 65.9872 31.8821 3.1131
     736 1 1 67.0831 31.9183 3.0247
     737 1 1 67.1086 32.9939 2.7956
     738 1 1 66.2657 33.6515 3.0550
     739 1 1 65.4282 33.4028 2.3866
     740 1 1 66.0303 33.0648 1.5303
     741 1 1 66.5164 32.6922 2.4440
     742 1 1 66.8695 31.7090 2.7886
     743 1 1 66.3706 32.1579 3.6601
     744 1 1 67.3144 32.7200 3.6019
     745 1 1 66.4040 33.3371 3.6168
     746 1 1 65.6465 34.1189 3.4581
     747 1 1 65.6239 34.5434 2.4436
     748 1 1 66.4410 33.8176 2.3182
     749 1 1 67.4791 33.4568 2.2727
     750 1 1 67.9716 32.9197 3.0967
     751 1 1 67.9295 31.8433 2.8738
     752 1 1 68.8828 31.5652 3.3469
     753 1 1 69.7991 31.1158 3.7574
     754 1 1 70.6104 31.3143 4.4731
     755 1 1 71.2028 31.9713 5.1270
     756 1 1 72.1216 31.4139 4.8921
     757 1 1 72.1056 31.2166 5.9742
     758 1 1 72.5867 31.7376 6.8151
     759 1 1 73.5450 31.3609 6.4282
     760 1 1 73.4778 31.6551 7.4860
     761 1 1 73.8353 31.4364 8.5031
     762 1 1 73.5727 30.4444 8.8993
     763 1 1 72.9372 29.6081 8.5724
     764 1 1 72.1802 29.0035 8.0514
     765 1 1 71.2538 28.7901 8.6047
     766 1 1 71.8328 29.6385 8.9985
     767 1 1 72.5859 29.6878 8.1982
     768 1 1 71.9490 28.7916 8.2330
     769 1 1 72.6323 28.9952 9.0707
     770 1 1 71.8923 29.0251 9.8840
     771 1 1 71.4414 29.3366 10.8378
     772 1 1 72.5084 29.0983 10.9590
     773 1 1 71.9656 29.3231 11.8889
     774 1 1 71.8613 30.3744 11.5828
     775 1 1 72.5501 30.5679 12.4184
     776 1 1 73.6461 30.5802 12.3258
     777 1 1 73.6035 31.6548 12.5570
     778 1 1 73.0382 31.0163 13.2519
     779 1 1 72.5410 30.4251 12.4688
     780 1 1 72.2261 30.4493 11.4151
     781 1 1 71.2980 30.3405 11.9954
     782 1 1 70.7893 30.2375 11.0256
     783 1 1 69.8325 30.0861 10.5044
     784 1 1 70.0539 30.1592 9.4294
     785 1 1 70.1804 30.8292 8.5662
     786 1 1 69.2962 31.0768 7.9605
     787 1 1 70.1586 31.7260 7.7487
     788 1 1 70.2136 32.4193 6.8965
     789 1 1 70.3563 31.5964 6.1806
     790 1 1 69.3902 31.5126 5.6612
     791 1 1 68.6272 31.3600 4.8837
     792 1 1 69.2203 32.2623 4.6738
     793 1 1 68.1828 32.5635 4.8810
     794 1 1 67.8656 32.0773 5.8153
     795 1 1 67.3221 31.2117 5.4085
     796 1 1 66.9353 30.8268 4.4534